KOJIN ID,Formula,DFT enthalpy,Nzpe energy
001CID6375, C1H3N1O2F0, -16.2430834, -43.9501064
002CID10509, C1H0N4O8F0, 33.9319487, .9685897
003CID15311932, C1H0N6O6F0, 99.1897991, 65.6290511
004CID20120, C2H6N2O2F0, -7.6926389, -60.3241149
005CID14344427, C2H3N5O4F0, 72.4014186, 24.7172996
006CID61232, C2H0N6O12F0, 58.4794928, 6.3748808
007CID4510, C3H5N3O9F0, -98.0314166, -169.2104256
008CID26368, C3H6N6O3F0, 48.7317602, -22.9407838
009CID8490, C3H6N6O6F0, 10.2817431, -69.6387629
010CID8819, C4H8N4O2F0, 18.5774187, -61.6478043
011CID20124, C4H8N4O4F0, -7.8495163, -93.5267363
012CID140617, C4H4N8O14F0, 41.5367363, -54.3395927
013CID7416, C6H5N1O2F0, 18.8064597, -42.2193873
014CID6947, C6H5N1O3F0, -22.4184043, -85.0002583
015CID11137, C6H5N1O3F0, -23.8861491, -86.1366781
016CID980, C6H5N1O3F0, -27.8036909, -90.3027139
017CID7423, C6H6N2O2F0, 16.7450910, -52.8933980
018CID7475, C6H6N2O2F0, 12.3644471, -57.2903569
019CID69319, C6H5N3O0F0, 97.7848053, 36.1063483
020CID137049, C6H4N4O2F0, 92.6662103, 29.0911053
021CID141415, C6H10N6O10F0, -16.9383639, -140.6516709
022CID7473, C7H7N1O2F0, 7.5094061, -69.2521989
023CID8461, C7H6N2O4F0, 6.2029314, -72.3555476
024CID12152, C7H7N3O0F0, 94.5004206, 16.4674816
025CID13330261, C7H15N3O0F0, 35.4806421, -89.7634139
026CID8376, C7H5N3O6F0, 9.4277027, -70.9665563
027CID145163, C10H14N2O4F0, -32.9235409, -175.8296679
028CID357114, C10H15N3O0F0, 38.6966283, -103.4053447
029CID577098, C9H11N3O0F0, 81.3170735, -28.0556035
030CID5462985, C14H6N6O12F0, 59.9058219, -79.6510061
031CID12231, C1H3N1O2F0, -16.4288262, -43.3784452
032CID11724, C1H3N1O3F0, -36.6879704, -66.7190724
033CID61172, C1H2N2O4F0, -7.2012990, -37.3251760
034CID8026, C2H5N1O2F0, -24.4835381, -67.6828451
035CID12259, C2H5N1O3F0, -43.6759162, -89.9429002
036CID10979, C3H7N1O2F0, -29.3718371, -89.0021821
037CID164756, C4H9N1O3F0, -62.1912115, -139.6322715
038CID10996, C4H9N1O2F0, -33.9658342, -110.0278452
039CID11672, C4H9N1O2F0, -35.9142512, -111.1755602
040CID143467, C4H4N4O7F0, -8.7117143, -75.8511193
041CID23506, C5H10N2O2F0, -20.9450120, -112.4454620
042CID11473, C6H5N1O1F0, 47.3888899, -10.5360221
043CID69321, C7H7N1O2F0, 11.5480573, -65.8573727
044CID136409, C7H6N2O4F0, 20.7730744, -58.3997366
045CID6672, C8H9N1O2F0, -1.1019066, -93.5779336
046CID297, C1H4N0O0F0, -12.2897735, -37.0365205
047CID222, C0H3N1O0F0, -3.1406850, -21.5487020
048CID962, C0H2N0O1F0, -54.2212133, -63.5244053
049CID6326, C2H2N0O0F0, 56.8523607, 39.4771727
050CID6325, C2H4N0O0F0, 15.7573910, -13.6784830
051CID6324, C2H6N0O0F0, -15.8006892, -57.5432322
052CID768, C1H1N1O0F0, 33.2372956, 22.6074626
053CID281, C1H0N0O1F0, -13.6803346, -17.6269006
054CID712, C1H2N0O1F0, -20.6594952, -36.2199602
055CID887, C1H4N0O1F0, -48.2755608, -75.4656128
056CID947, C0H0N2O0F0, 40.5672341, 36.8465371
057CID9321, C0H4N2O0F0, 15.2171053, -13.7111827
058CID784, C0H2N0O2F0, -23.9319573, -37.0878403
059CID280, C1H0N0O2F0, -84.7219401, -92.0775491
060CID948, C0H0N2O1F0, 27.9191526, 21.1295226
061CID24823, C0H0N0O3F0, 43.5115087, 39.3963247
062CID6335, C3H4N0O0F0, 45.4994588, 12.2385378
063CID10037, C3H4N0O0F0, 37.6417848, 4.7586248
064CID123173, C3H4N0O0F0, 61.0096111, 27.7085301
065CID8252, C3H6N0O0F0, 5.6908836, -39.9764804
066CID6351, C3H6N0O0F0, 11.2976810, -35.0655910
067CID6334, C3H8N0O0F0, -20.9362269, -79.1185939
068CID7845, C4H6N0O0F0, 28.5824302, -21.2300108
069CID10419, C4H6N0O0F0, 35.3030569, -14.1849611
070CID80245, C4H6N0O0F0, 35.9493917, -13.7607643
071CID135973, C4H6N0O0F0, 59.5901846, 9.6748326
072CID69972, C4H6N0O0F0, 33.8528825, -16.5889505
073CID9250, C4H8N0O0F0, -3.4544397, -66.8568067
074CID8255, C4H8N0O0F0, -4.9598350, -66.4301000
075CID7843, C4H10N0O0F0, -25.9939535, -100.6098685
076CID6360, C4H10N0O0F0, -27.4573056, -101.5894106
077CID9088, C5H8N0O0F0, 33.3270295, -33.0149685
078CID241, C6H6N0O0F0, 24.4025894, -34.8439536
079CID6329, C1H5N1O0F0, -2.4077539, -37.5367189
080CID6342, C2H3N1O0F0, 20.5408959, -5.8692481
081CID284, C1H2N0O2F0, -87.7942266, -105.6329616
082CID7865, C2H4N0O2F0, -84.3209615, -118.6202275
083CID178, C2H5N1O1F0, -55.0388582, -95.6637112
084CID9033, C2H5N1O0F0, 29.5676201, -9.8927919
085CID9999, C2H0N2O0F0, 74.1967232, 62.1532422
086CID674, C2H7N1O0F0, -3.0879742, -54.3492822
087CID6341, C2H7N1O0F0, -11.1577464, -62.6769614
088CID10038, C2H2N0O1F0, -18.4023435, -37.8631565
089CID6354, C2H4N0O1F0, -10.0037564, -42.2544214
090CID177, C2H4N0O1F0, -38.1343798, -69.9577108
091CID7860, C2H2N0O2F0, -45.7887407, -67.7932607
092CID702, C2H6N0O1F0, -57.2602418, -100.7501818
093CID8254, C2H6N0O1F0, -45.7165771, -89.7166831
094CID7855, C3H3N1O0F0, 46.0648448, 15.4581688
095CID180, C3H6N0O1F0, -54.3624030, -102.0589160
096CID176, C2H4N0O2F0, -101.0980555, -134.6963935
097CID3776, C3H8N0O1F0, -67.0820205, -126.4024725
098CID10903, C3H8N0O1F0, -52.1221940, -112.3493970
099CID1146, C3H9N1O0F0, -4.4459048, -71.3770828
100CID8029, C4H4N0O1F0, -8.1350331, -48.8747711
101CID8027, C4H5N1O0F0, 25.8452337, -21.9385893
102CID1049, C5H5N1O0F0, 34.0668632, -17.7013938
103CID783, C0H2N0O0F0, -25.7322820, -33.9871220