KOJIN ID,Formula,DFT enthalpy,Nzpe energy
001CID6375, C1H3N1O2F0,-14.40411237,-42.11050789
002CID10509, C1H0N4O8F0,34.70445774,5.508038057
003CID15311932, C1H0N6O6F0,94.17587332,64.18502751
004CID20120, C2H6N2O2F0,-0.666126551,-53.50468106
005CID14344427, C2H3N5O4F0,68.2615746,22.74424582
006CID61232, C2H0N6O12F0,46.49105921,0.15137763
007CID4510, C3H5N3O9F0,-69.0761266,-137.5687671
008CID26368, C3H6N6O3F0,91.97241393,23.16947016
009CID8490, C3H6N6O6F0,48.73624619,-28.52675746
010CID8819, C4H8N4O2F0,47.57203465,-30.6012327
011CID20124, C4H8N4O4F0,14.18094721,-69.65767006
012CID140617, C4H4N8O14F0,36.31248562,-53.26239277
013CID7416, C6H5N1O2F0,14.65512336,-44.07529441
014CID6947, C6H5N1O3F0,-22.33496697,-83.18928752
015CID11137, C6H5N1O3F0,-28.04840888,-88.89268873
016CID980, C6H5N1O3F0,-29.72352427,-90.65502846
017CID7423, C6H6N2O2F0,14.68144279,-53.09459814
018CID7475, C6H6N2O2F0,12.69633617,-55.10103969
019CID69319, C6H5N3O0F0,96.83474649,37.83010754
020CID137049, C6H4N4O2F0,92.63640951,32.56155245
021CID141415, C6H10N6O10F0,-19.08348936,-139.8983304
022CID7473, C7H7N1O2F0,6.980217607,-67.54368797
023CID8461, C7H6N2O4F0,7.969420661,-67.60901586
024CID12152, C7H7N3O0F0,97.22627548,22.02779673
025CID13330261, C7H15N3O0F0,37.6491436,-86.76660034
026CID8376, C7H5N3O6F0,13.64587715,-62.81326988
027CID145163, C10H14N2O4F0,-31.81745571,-170.3849822
028CID357114, C10H15N3O0F0,49.51463005,-88.33471111
029CID577098, C9H11N3O0F0,82.03344066,-24.86057365
030CID5462985, C14H6N6O12F0,71.3859609,-58.2078988
031CID12231, C1H3N1O2F0,-11.9131327,-38.77929339
032CID11724, C1H3N1O3F0,-28.05531525,-57.89690876
033CID61172, C1H2N2O4F0,-4.890950536,-33.6499941
034CID8026, C2H5N1O2F0,-19.45860747,-62.40628308
035CID12259, C2H5N1O3F0,-35.55257993,-81.47443376
036CID10979, C3H7N1O2F0,-23.94342255,-83.06862296
037CID164756, C4H9N1O3F0,-49.23165902,-126.5083121
038CID10996, C4H9N1O2F0,-28.73466286,-103.9903244
039CID11672, C4H9N1O2F0,-36.85827931,-112.2752106
040CID143467, C4H4N4O7F0,5.425613426,-58.56683218
041CID23506, C5H10N2O2F0,-7.773595872,-97.61616554
042CID11473, C6H5N1O1F0,47.01786525,-8.696958218
043CID69321, C7H7N1O2F0,9.835174603,-65.19136695
044CID136409, C7H6N2O4F0,16.84238189,-58.94501479
045CID6672, C8H9N1O2F0,3.240034091,-87.2361203
046CID297, C1H4N0O0F0,-15.06320917,-40.88174231
047CID222, C0H3N1O0F0,-6.679380755,-26.16671478
048CID962, C0H2N0O1F0,-53.5371875,-65.82355895
049CID6326, C2H2N0O0F0,55.64957825,39.40767202
050CID6325, C2H4N0O0F0,14.70481524,-14.66391475
051CID6324, C2H6N0O0F0,-17.27402449,-59.62776161
052CID768, C1H1N1O0F0,32.85975904,22.88002571
053CID281, C1H0N0O1F0,-26.26046441,-30.12984662
054CID712, C1H2N0O1F0,-24.89006889,-40.42355096
055CID887, C1H4N0O1F0,-46.2514877,-75.13832551
056CID947, C0H0N2O0F0,2.264987664,-1.160779792
057CID9321, C0H4N2O0F0,26.36257834,-2.952255221
058CID784, C0H2N0O2F0,-28.83086405,-43.46013924
059CID280, C1H0N0O2F0,-94.83894708,-101.8695057
060CID948, C0H0N2O1F0,22.15458674,16.11985162
061CID24823, C0H0N0O3F0,50.9950556,47.13840556
062CID6335, C3H4N0O0F0,44.73406132,12.25815512
063CID10037, C3H4N0O0F0,44.92390897,12.74167692
064CID123173, C3H4N0O0F0,64.82738425,32.43807437
065CID8252, C3H6N0O0F0,7.138855451,-38.31829315
066CID6351, C3H6N0O0F0,11.50644013,-34.50040613
067CID6334, C3H8N0O0F0,-21.78553554,-80.25028162
068CID7845, C4H6N0O0F0,28.84664296,-20.03520135
069CID10419, C4H6N0O0F0,35.32229502,-13.72521118
070CID80245, C4H6N0O0F0,43.83879961,-4.829063587
071CID135973, C4H6N0O0F0,48.46009844,-0.668356827
072CID69972, C4H6N0O0F0,39.9344516,-9.305073163
073CID9250, C4H8N0O0F0,8.605548356,-53.84614197
074CID8255, C4H8N0O0F0,-1.029792166,-62.4416987
075CID7843, C4H10N0O0F0,-26.31477102,-100.9099778
076CID6360, C4H10N0O0F0,-27.93918573,-102.2394634
077CID9088, C5H8N0O0F0,39.25752125,-25.93676139
078CID241, C6H6N0O0F0,18.99129979,-38.5992464
079CID6329, C1H5N1O0F0,-2.050323824,-37.9285354
080CID6342, C2H3N1O0F0,18.88105098,-7.377863135
081CID284, C1H2N0O2F0,-90.43703047,-109.4605034
082CID7865, C2H4N0O2F0,-87.0083734,-122.1623079
083CID178, C2H5N1O1F0,-55.23145898,-96.71599998
084CID9033, C2H5N1O0F0,29.10288758,-10.17115412
085CID9999, C2H0N2O0F0,75.71818593,65.23343913
086CID674, C2H7N1O0F0,-1.676261604,-53.46091314
087CID6341, C2H7N1O0F0,-8.402449852,-60.34460639
088CID10038, C2H2N0O1F0,-13.26227118,-31.97320985
089CID6354, C2H4N0O1F0,-14.80642906,-47.13302258
090CID177, C2H4N0O1F0,-38.19121638,-69.88026015
091CID7860, C2H2N0O2F0,-50.349791,-71.77323714
092CID702, C2H6N0O1F0,-53.81944354,-98.77587367
093CID8254, C2H6N0O1F0,-43.86579692,-88.81846194
094CID7855, C3H3N1O0F0,46.18719692,16.55065114
095CID180, C3H6N0O1F0,-49.95401344,-97.6724891
096CID176, C2H4N0O2F0,-102.8182734,-137.7030062
097CID3776, C3H8N0O1F0,-62.23612537,-122.9270578
098CID10903, C3H8N0O1F0,-51.43489733,-112.4351925
099CID1146, C3H9N1O0F0,-3.994504408,-71.42643431
100CID8029, C4H4N0O1F0,-10.86208142,-50.75781969
101CID8027, C4H5N1O0F0,24.13067364,-22.56253757
102CID1049, C5H5N1O0F0,31.86154527,-18.68808861
103CID783, C0H2N0O0F0,1.483036417,-4.783225633
01KURT08MO, C4H4N8O10F4,16.27673206,-69.82755192
02KTNFC, C8H2N8O8F12,-540.8944318,-641.1082123
03CUVFAA, C5H4N5O10F3,-156.8182594,-238.5600455
04LELXOP, C10H10N14O26F2,-105.6035999,-301.2254462
05CUVDUS, C5H4N6O12F2,-99.1506949,-186.1379867
06FNETAM01, C4H4N6O10F2,-82.35449986,-161.7489835
07PIC18A, C3H1N4O4F1,53.99364713,17.39401981
08CELFII, C6H4N4O12F2,-242.645704,-328.3336057
09NAWC09CD, C6H8N8O8F4,6.91230642,-108.9207049
10DFTNBD, C4H4N4O10F2,-178.1568544,-252.0045877
11NAWC08C, C4H6N6O4F4,9.27517661,-72.39430209
12CUVXUM, C5H4N7O14F1,-33.28427306,-125.1688029
13VAYVIA, C10H8N10O18F4,-258.618714,-417.3885941
14TASJEC, C6H0N10O8F4,148.3046938,78.14081465
15HNFX, C6H8N8O4F8,-5.1098685,-117.2131239
16FANTBZ, C6H2N4O6F2,32.51354088,-26.71739771
17CELFOO, C5H2N4O11F2,-207.0642235,-274.9891008
18SRI1187, C6H6N10O8F2,5.97842743,-99.5790824
19BOTT14, C4H0N8O4F2,125.8619824,79.46224208
20SRI02, C12H10N8O11F2,95.75134526,-55.81334298
21HAAF08, C7H3N4O6F3,-135.6277748,-207.8461403
22WISKEO, C6H6N4O11F2,-202.8653015,-299.4475659
23BEWYOR, C6H4N5O6F1,-28.5487782,-102.8687236
24FEFO, C5H6N4O10F2,-179.1734108,-269.8876742