KOJIN ID,Formula,DFT enthalpy,Nzpe energy
0435, C8H4N10O6F0, 128.24015612, 35.38498954
0436, C8H4N10O12F0, 128.51765148, 21.37727665
0437, C8H4N14O8F0, 262.93962386, 154.58815582
0438, C8H4N14O8F0, 269.66711477, 161.52711822
0439, C8H8N10O8F0, 85.58775428, -38.49865975
0440, C8H6N12O12F0, 130.29901038, 4.52710440
0441, C4H4N6O4F0, 98.465208769, 34.846542463
0442, C4H1N7O2F0, 158.030103554, 115.534688400
0443, C8H6N12O13F0, 111.17759661, -14.96683281
0444, C10H10N14O8F0, 158.98606718, 3.78726611
0445, C10H8N12O8F0, 178.33293407, 41.35652822
0446, C10H7N15O12F0, 171.87230815, 24.03050018
0447, C10H6N14O12F0, 202.39358683, 63.96637746
0448, C10H5N13O12F0, 170.80981750, 41.34100713
0449, C10H4N14O14F0, 198.41166645, 68.72667845
0450, C20H16N28O16F0, 360.54940366, 75.12595795
0451, C20H12N24O16F0, 396.33643169, 147.75561759
0452, C20H8N28O24F0, 453.83551545, 201.79398318
0453, C10H8N16O6F0, 323.45540450, 180.18237484
0454, C2H4N4O4F0, 2.685397108, -47.668026994
0455, C4H2N6O4F0, 96.726832172, 44.990011612
0456, C6H4N8O10F0, 62.93778473, -27.10871758
0457, C4H0N8O8F0, 160.57652672, 108.58493602
0458, C4H4N8O4F0, 149.650380206, 79.845530919
0459, C4H2N10O8F0, 178.41269875, 107.69733160
0460, C2H4N4O4F0, 2.685397108, -47.668026994
0461, C2H5N5O4F0, 31.782616951, -27.799662326
0462, C6H8N10O8F0, 101.27977076, -13.06819867
0463, C6H4N8O10F0, 62.93778473, -27.10871758
0464, C6H4N8O8F0, 85.77464421, .65554075
0465, C7H4N8O8F0, 16.98590515, -72.43389735
0466, C6H4N10O10F0, 65.44192707, -29.78737069
0467, C6H4N12O4F0, 257.08149357, 170.16081011
0468, C6H4N12O2F0, 282.05379985, 200.24625746
0469, C4H2N10O6F0, 203.57706007, 140.26147912
0470, C4H2N10O6F0, 139.01432064, 74.96392614
0471, C3H3N5O5F0, 42.349339331, -10.282224189
0472, C3H2N4O6F0, -31.169230563, -77.220439202
0473, C6H2N10O10F0, 123.41275278, 42.33939476
0474, C4H2N8O10F0, 66.49837787, -2.41980183
0475, C4H2N6O3F0, 123.255085041, 75.462572028
0476, C4H2N6O4F0, 112.535532084, 62.257043059
0477, C3H5N7O0F0, 131.412915033, 71.064891264
0478, C3H3N7O2F0, 114.835744591, 62.908030309
0479, C5H5N9O4F0, 121.401251149, 39.523924917
0480, C5H3N9O6F0, 145.02590889, 71.55822352
0481, C5H3N11O4F0, 214.85574016, 140.85780926
0482, C7H0N10O15F0, 64.31733757, -17.80643818
0483, C7H3N9O8F0, 118.82516632, 32.53400522
0484, C8H5N9O8F0, 108.30666552, 5.66039559
0485, C7H4N10O8F0, 157.51609574, 61.98164629
0486, C7H3N11O10F0, 166.66248908, 70.68219313
0487, C4H2N6O9F0, 26.78198134, -34.54461081
0488, C4H0N8O13F0, 67.92445258, 6.50561538
0489, C8H6N12O12F0, 130.29901038, 4.52710440
0490, C6H5N11O8F0, 161.62550354, 61.82115447
0491, C6H7N11O6F0, 136.20817027, 28.13097752
0492, C6H6N12O8F0, 155.74233677, 46.66771695
0493, C6H6N12O4F0, 207.78532174, 108.27747210
0494, C6H5N13O6F0, 224.33161431, 123.96940976
0495, C6H5N13O6F0, 225.22210696, 124.96532381
0496, C5H2N8O2F0, 147.747058079, 92.881725572
0497, C5H3N11O2F0, 188.264013345, 118.481885464
0498, C6H0N14O4F0, 325.97747342, 260.12764371
0499, C3H3N9O1F0, 166.527511490, 111.934352823
0500, C3H5N9O0F0, 154.567150976, 88.850589892
0501, C3H3N9O2F0, 159.178315975, 102.180130497
0502, C5H4N12O2F0, 220.19178522, 141.06471253
0503, C6H4N6O4F0, 124.484581786, 54.617050889
0504, C6H4N6O4F0, 86.595904629, 15.819739908
0505, C6H2N8O8F0, 103.57295809, 30.35578021
0506, C6H4N6O4F0, 83.887654614, 12.314552790
0507, C6H2N8O8F0, 132.64256801, 60.63962086
0508, C6H2N8O8F0, 140.54059126, 68.80370771
0509, C6H9N3O3F0, -48.247275425, -139.693411175
0510, C4H4N6O2F0, 67.018044256, 8.186214734
0511, C8H4N12O4F0, 213.68840994, 120.48936840
0512, C4H5N7O1F0, 89.632677251, 23.512033788
0513, C8H4N8O8F0, 116.29205748, 22.73345369
0514, C9H6N8O8F0, 104.36806866, -5.64039938
0515, C6H4N8O4F0, 109.042901927, 31.835825978
0516, C7H6N8O4F0, 101.28815102, 7.71906325
0517, C7H10N10O14F0, -83.61217620, -229.16459376
0518, C7H8N12O18F0, -38.69581884, -185.07466763
0519, C3H2N8O2F0, 178.756905170, 132.231926798
0520, C6H2N14O0F0, 393.143372493, 324.524777633
0521, C3H2N10O0F0, 231.392618335, 183.593795794
0522, C3H1N11O2F0, 254.406863787, 206.575724043
0523, C6H0N20O0F0, 545.43481130, 474.28107665
0524, C8H8N8O6F0, 94.36091221, -19.57765732
0525, C8H6N10O10F0, 109.87129623, -5.54756977
0526, C8H6N10O10F0, 115.74920958, .08059431
0527, C8H8N12O10F0, 98.87803035, -35.17550462
0528, C8H4N16O10F0, 283.07822444, 164.81485672
0529, C8H4N16O10F0, 277.51616915, 159.06517542
0530, C3H6N6O6F0, 44.710418730, -32.661771466
0531, C4H8N8O8F0, 54.52277238, -49.62345528