KOJIN ID,Formula,DFT enthalpy,Nzpe energy,SP energy
001CID6375, C1H3N1O2F0, -14.484249, -42.190645, -153707.367061
002CID10509, C1H0N4O8F0, 18.386985, -10.809434, -538576.934108
003CID15311932, C1H0N6O6F0, 78.437280, 48.446434, -512918.693770
004CID20120, C2H6N2O2F0, 3.980018, -48.858536, -213069.662849
005CID14344427, C2H3N5O4F0, 60.306052, 14.788723, -409287.866811
006CID61232, C2H0N6O12F0, 26.207442, -20.132239, -819822.720500
007CID4510, C3H5N3O9F0, -64.509460, -133.002101, -601134.796297
008CID26368, C3H6N6O3F0, 96.371585, 27.568641, -421475.940531
009CID8490, C3H6N6O6F0, 53.252143, -24.010860, -562991.842810
010CID8819, C4H8N4O2F0, 54.964887, -23.208379, -330297.210659
011CID20124, C4H8N4O4F0, 22.380327, -61.458290, -424645.009088
012CID140617, C4H4N8O14F0, 23.001597, -66.573281, -1032160.936941
013CID7416, C6H5N1O2F0, 18.237049, -40.493367, -273968.711205
014CID6947, C6H5N1O3F0, -15.323037, -76.177357, -321159.169454
015CID11137, C6H5N1O3F0, -20.859554, -81.703833, -321164.695930
016CID980, C6H5N1O3F0, -22.444642, -83.376146, -321166.368243
017CID7423, C6H6N2O2F0, 19.732667, -48.043373, -308696.057692
018CID7475, C6H6N2O2F0, 17.879631, -49.917744, -308697.932063
019CID69319, C6H5N3O0F0, 96.198977, 37.194338, -248292.039031
020CID137049, C6H4N4O2F0, 89.297134, 29.222277, -376600.327177
021CID141415, C6H10N6O10F0, -16.459903, -137.274744, -824902.669064
022CID7473, C7H7N1O2F0, 12.686265, -61.837639, -298625.886893
023CID8461, C7H6N2O4F0, 10.769359, -64.809077, -426929.174416
024CID12152, C7H7N3O0F0, 98.743693, 23.545215, -272941.519569
025CID13330261, C7H15N3O0F0, 48.200697, -76.215046, -275957.395487
026CID8376, C7H5N3O6F0, 12.611862, -63.847285, -555228.528710
027CID145163, C10H14N2O4F0, -15.082655, -153.650181, -501654.538682
028CID357114, C10H15N3O0F0, 64.243971, -73.605370, -347675.193316
029CID577098, C9H11N3O0F0, 87.901287, -18.992726, -322255.720343
030CID5462985, C14H6N6O12F0, 63.808777, -65.785082, -1108937.090104
031CID12231, C1H3N1O2F0, -10.685934, -37.552095, -153702.728510
032CID11724, C1H3N1O3F0, -26.217673, -56.059267, -200876.009942
033CID61172, C1H2N2O4F0, -9.108868, -37.867912, -282003.360413
034CID8026, C2H5N1O2F0, -15.904765, -58.852441, -178359.860272
035CID12259, C2H5N1O3F0, -31.322298, -77.244151, -225533.026242
036CID10979, C3H7N1O2F0, -17.829798, -76.954999, -203013.794246
037CID164756, C4H9N1O3F0, -39.889980, -117.166634, -274844.611556
038CID10996, C4H9N1O2F0, -20.015876, -95.271538, -227667.942200
039CID11672, C4H9N1O2F0, -28.989889, -104.406821, -227677.077484
040CID143467, C4H4N4O7F0, 7.793864, -56.198581, -564646.014328
041CID23506, C5H10N2O2F0, 3.679057, -86.163512, -286285.433158
042CID11473, C6H5N1O1F0, 51.923893, -3.790930, -226777.234508
043CID69321, C7H7N1O2F0, 15.607323, -59.419218, -298623.468471
044CID136409, C7H6N2O4F0, 18.363478, -57.423917, -426921.789257
045CID6672, C8H9N1O2F0, 11.238767, -79.237387, -323279.118056
046CID297, C1H4N0O0F0, -13.058682, -38.877215, -25403.737545
047CID222, C0H3N1O0F0, -5.603772, -25.091106, -35473.916502
048CID962, C0H2N0O1F0, -50.490668, -62.777040, -47946.580213
049CID6326, C2H2N0O0F0, 57.633060, 41.391154, -48501.242763
050CID6325, C2H4N0O0F0, 17.662212, -11.706517, -49283.369348
051CID6324, C2H6N0O0F0, -12.700836, -55.054574, -50055.746319
052CID768, C1H1N1O0F0, 31.707602, 21.727869, -58604.871114
053CID281, C1H0N0O1F0, -24.517135, -28.386517, -71089.963278
054CID712, C1H2N0O1F0, -22.983877, -38.517359, -71829.123033
055CID887, C1H4N0O1F0, -40.353714, -69.240551, -72588.875140
056CID947, C0H0N2O0F0, -.394432, -3.820199, -68714.384249
057CID9321, C0H4N2O0F0, 29.343749, .028915, -70168.592962
058CID784, C0H2N0O2F0, -24.572267, -39.201542, -95077.778975
059CID280, C1H0N0O2F0, -94.569409, -101.599968, -118317.950988
060CID948, C0H0N2O1F0, 15.107938, 9.073203, -115856.265105
061CID24823, C0H0N0O3F0, 36.348988, 32.492338, -141431.830439
062CID6335, C3H4N0O0F0, 49.268524, 16.792617, -73161.672715
063CID10037, C3H4N0O0F0, 49.742294, 17.560062, -73160.905271
064CID123173, C3H4N0O0F0, 73.716921, 41.327611, -73137.137721
065CID8252, C3H6N0O0F0, 12.549431, -32.907717, -73940.401964
066CID6351, C3H6N0O0F0, 21.306325, -24.700520, -73932.194767
067CID6334, C3H8N0O0F0, -14.684855, -73.149601, -74709.672763
068CID7845, C4H6N0O0F0, 34.248622, -14.633221, -97828.929970
069CID10419, C4H6N0O0F0, 42.373614, -6.673891, -97820.970640
070CID80245, C4H6N0O0F0, 54.062862, 5.394998, -97808.901749
071CID135973, C4H6N0O0F0, 63.373848, 14.245392, -97800.051355
072CID69972, C4H6N0O0F0, 48.040026, -1.199498, -97815.496247
073CID9250, C4H8N0O0F0, 18.308251, -44.143438, -98587.469101
074CID8255, C4H8N0O0F0, 6.755801, -54.656105, -98597.981768
075CID7843, C4H10N0O0F0, -16.700878, -91.296085, -99363.650662
076CID6360, C4H10N0O0F0, -18.309185, -92.609462, -99364.964039
077CID9088, C5H8N0O0F0, 55.708357, -9.485925, -122459.614089
078CID241, C6H6N0O0F0, 25.448254, -32.142291, -145660.044043
079CID6329, C1H5N1O0F0, 1.934665, -33.943546, -60118.600358
080CID6342, C2H3N1O0F0, 20.273290, -5.985624, -83268.416023
081CID284, C1H2N0O2F0, -85.610831, -104.634304, -119050.014238
082CID7865, C2H4N0O2F0, -79.272819, -114.426754, -143695.638103
083CID178, C2H5N1O1F0, -49.498234, -90.982775, -131237.216348
084CID9033, C2H5N1O0F0, 37.741524, -1.532516, -83992.991830
085CID9999, C2H0N2O0F0, 70.552872, 60.068125, -116464.100927
086CID674, C2H7N1O0F0, 5.059827, -46.724823, -84767.213051
087CID6341, C2H7N1O0F0, -2.001536, -53.943693, -84774.431920
088CID10038, C2H2N0O1F0, -10.337138, -29.048076, -95726.456253
089CID6354, C2H4N0O1F0, -5.488118, -37.814712, -96464.251802
090CID177, C2H4N0O1F0, -33.960107, -65.649151, -96492.086241
091CID7860, C2H2N0O2F0, -46.917427, -68.340873, -142920.523309
092CID702, C2H6N0O1F0, -45.516697, -90.473127, -97245.939131
093CID8254, C2H6N0O1F0, -35.174085, -80.126750, -97235.592755
094CID7855, C3H3N1O0F0, 47.308193, 17.671648, -107151.561252
095CID180, C3H6N0O1F0, -43.149818, -90.868294, -121153.136800
096CID176, C2H4N0O2F0, -95.172655, -130.057388, -143711.268738
097CID3776, C3H8N0O1F0, -51.371195, -112.062128, -121903.359548
098CID10903, C3H8N0O1F0, -40.370326, -101.370621, -121892.668041
099CID1146, C3H9N1O0F0, 5.536272, -61.895657, -109418.215300
100CID8029, C4H4N0O1F0, -1.961062, -41.856800, -144281.898894
101CID8027, C4H5N1O0F0, 31.631917, -15.061294, -131820.125610
102CID1049, C5H5N1O0F0, 36.892870, -13.656763, -155725.523581
103CID783, C0H2N0O0F0, 2.042795, -4.223466, -733.252380