KOJIN ID,Formula,DFT enthalpy,Nzpe energy,SP energy
001CID6375, C1H3N1O2F0, -20.801276170, -48.507671689, -245.015190222
002CID10509, C1H0N4O8F0, 10.902748814, -18.293670872, -858.438617389
003CID15311932, C1H0N6O6F0, 73.088045085, 43.097199280, -817.559159649
004CID20120, C2H6N2O2F0, -12.656229809, -65.494784317, -339.670890148
005CID14344427, C2H3N5O4F0, 50.686108429, 5.168779645, -652.411338656
006CID61232, C2H0N6O12F0, 11.40081582, -34.93886576, -1306.72845566
007CID4510, C3H5N3O9F0, -87.972384180, -156.465024684, -958.196693947
008CID26368, C3H6N6O3F0, 68.511141457, -.291802318, -671.894040342
009CID8490, C3H6N6O6F0, 25.461598180, -51.801405467, -897.440014751
010CID8819, C4H8N4O2F0, 27.788555190, -50.384712153, -526.573866641
011CID20124, C4H8N4O4F0, -5.292626012, -89.131243282, -676.944872256
012CID140617, C4H4N8O14F0, -7.91464121, -97.48951961, -1645.22955276
013CID7416, C6H5N1O2F0, 4.353965057, -54.376452707, -436.775445803
014CID6947, C6H5N1O3F0, -27.589515659, -88.443836208, -511.984365177
015CID11137, C6H5N1O3F0, -32.892235663, -93.736515512, -511.992799598
016CID980, C6H5N1O3F0, -34.768800427, -95.700304610, -511.995929095
017CID7423, C6H6N2O2F0, 5.876541355, -61.899499576, -492.133802142
018CID7475, C6H6N2O2F0, 3.575611087, -64.221764771, -492.137502907
019CID69319, C6H5N3O0F0, 86.152928371, 27.148289421, -395.863902697
020CID137049, C6H4N4O2F0, 76.749702553, 16.674845489, -600.371118605
021CID141415, C6H10N6O10F0, -55.75793695, -176.57277804, -1314.93905240
022CID7473, C7H7N1O2F0, -6.280140582, -80.804046159, -476.099822491
023CID8461, C7H6N2O4F0, -10.623804423, -86.202240946, -680.598950475
024CID12152, C7H7N3O0F0, 84.866668899, 9.668190150, -435.174020646
025CID13330261, C7H15N3O0F0, 16.422178314, -107.993565622, -440.021931692
026CID8376, C7H5N3O6F0, -9.885245291, -86.344392315, -885.089702421
027CID145163, C10H14N2O4F0, -54.852872632, -193.420399080, -799.781699673
028CID357114, C10H15N3O0F0, 29.441597004, -108.407744155, -554.374072811
029CID577098, C9H11N3O0F0, 65.033641033, -41.860373271, -513.820659913
030CID5462985, C14H6N6O12F0, 25.95344479, -103.64041491, -1767.73916671
031CID12231, C1H3N1O2F0, -18.844601378, -45.710762073, -245.010733063
032CID11724, C1H3N1O3F0, -35.504739054, -65.346332570, -320.196653880
033CID61172, C1H2N2O4F0, -15.171721681, -43.930765248, -449.498421871
034CID8026, C2H5N1O2F0, -28.818594394, -71.766270002, -284.334516795
035CID12259, C2H5N1O3F0, -45.212889758, -91.134743590, -359.520011966
036CID10979, C3H7N1O2F0, -35.404134952, -94.529335358, -323.653053686
037CID164756, C4H9N1O3F0, -63.463986752, -140.740639866, -438.163587268
038CID10996, C4H9N1O2F0, -42.311710028, -117.567371611, -362.972028771
039CID11672, C4H9N1O2F0, -49.906732555, -125.323663880, -362.984389209
040CID143467, C4H4N4O7F0, -15.633574646, -79.626020249, -900.063410799
041CID23506, C5H10N2O2F0, -23.546037115, -113.388606782, -456.428897448
042CID11473, C6H5N1O1F0, 37.945841184, -17.768982287, -361.562478543
043CID69321, C7H7N1O2F0, -.886652262, -75.913193818, -476.092028422
044CID136409, C7H6N2O4F0, .873725331, -74.913671345, -680.580960995
045CID6672, C8H9N1O2F0, -12.122278238, -102.598432630, -515.416815694
046CID297, C1H4N0O0F0, -19.9479550885, -45.7664882320, -40.5202964549
047CID222, C0H3N1O0F0, -4.1687427929, -23.6560768134, -56.5491672353
048CID962, C0H2N0O1F0, -44.0621332858, -56.3485047268, -76.4095278770
049CID6326, C2H2N0O0F0, 61.1146015981, 44.8726953701, -77.3279128111
050CID6325, C2H4N0O0F0, 12.5044450197, -16.8642849648, -78.5913982253
051CID6324, C2H6N0O0F0, -24.2897053902, -66.6434425107, -79.8358276367
052CID768, C1H1N1O0F0, 34.7384653174, 24.7587319909, -93.4240724131
053CID281, C1H0N0O1F0, -20.221311098, -24.090693309, -113.310180868
054CID712, C1H2N0O1F0, -25.515458030, -41.048940101, -114.502306831
055CID887, C1H4N0O1F0, -43.601040055, -72.487877867, -115.717509243
056CID947, C0H0N2O0F0, 5.153115198, 1.727347742, -109.524881221
057CID9321, C0H4N2O0F0, 28.083338033, -1.231495532, -111.859798993
058CID784, C0H2N0O2F0, -23.147056823, -37.776332008, -151.534560782
059CID280, C1H0N0O2F0, -90.962365951, -97.992924548, -188.582581110
060CID948, C0H0N2O1F0, 18.712473738, 12.677738618, -184.662060208
061CID24823, C0H0N0O3F0, 39.110559055, 35.253909013, -225.407707957
062CID6335, C3H4N0O0F0, 46.735961582, 14.260055383, -116.658958795
063CID10037, C3H4N0O0F0, 43.554110328, 11.371878276, -116.663561398
064CID123173, C3H4N0O0F0, 67.947223433, 35.557913556, -116.625018499
065CID8252, C3H6N0O0F0, 2.279534208, -43.177614395, -117.915592822
066CID6351, C3H6N0O0F0, 10.741878161, -35.264968094, -117.902983218
067CID6334, C3H8N0O0F0, -30.801555016, -89.266301097, -119.154141094
068CID7845, C4H6N0O0F0, 24.416374434, -24.465469877, -156.002933484
069CID10419, C4H6N0O0F0, 33.836124113, -15.211382084, -155.988186157
070CID80245, C4H6N0O0F0, 43.003189765, -5.664673435, -155.972972509
071CID135973, C4H6N0O0F0, 52.659029939, 3.530574674, -155.958318949
072CID69972, C4H6N0O0F0, 36.499390551, -12.740134212, -155.984247973
073CID9250, C4H8N0O0F0, 1.361041540, -61.090648786, -157.226400697
074CID8255, C4H8N0O0F0, -8.497406220, -69.909312756, -157.240454132
075CID7843, C4H10N0O0F0, -37.385040735, -111.980247519, -158.472599709
076CID6360, C4H10N0O0F0, -38.725966733, -113.026244360, -158.474266611
077CID9088, C5H8N0O0F0, 39.866956597, -25.327326048, -195.286568578
078CID241, C6H6N0O0F0, 14.111933379, -43.478612805, -232.267553577
079CID6329, C1H5N1O0F0, -4.1710693005, -40.0492808730, -95.8575531066
080CID6342, C2H3N1O0F0, 17.539420609, -8.719493506, -132.759684998
081CID284, C1H2N0O2F0, -85.783026569, -104.806499475, -189.758540510
082CID7865, C2H4N0O2F0, -87.898252774, -123.052187319, -229.069878502
083CID178, C2H5N1O1F0, -55.963503403, -97.448044406, -209.220813761
084CID9033, C2H5N1O0F0, 29.833852688, -9.440189014, -133.925934777
085CID9999, C2H0N2O0F0, 75.255075761, 64.770328959, -185.658736562
086CID674, C2H7N1O0F0, -8.089249307, -59.873900841, -135.171407287
087CID6341, C2H7N1O0F0, -12.979959717, -64.922116250, -135.179452130
088CID10038, C2H2N0O1F0, -11.447295335, -30.158234006, -152.602111748
089CID6354, C2H4N0O1F0, -12.907361924, -45.233955435, -153.791237716
090CID177, C2H4N0O1F0, -41.316590192, -73.005633964, -153.835494701
091CID7860, C2H2N0O2F0, -50.907096623, -72.330542758, -227.823947142
092CID702, C2H6N0O1F0, -53.661050101, -98.617480235, -155.041411052
093CID8254, C2H6N0O1F0, -47.649242460, -92.601907476, -155.031824627
094CID7855, C3H3N1O0F0, 44.726907014, 15.090361233, -170.838901942
095CID180, C3H6N0O1F0, -55.291491276, -103.009966932, -193.165571286
096CID176, C2H4N0O2F0, -100.033580803, -134.918313526, -229.088788377
097CID3776, C3H8N0O1F0, -64.232663564, -124.923596005, -194.365594153
098CID10903, C3H8N0O1F0, -57.368315287, -118.368610433, -194.355148119
099CID1146, C3H9N1O0F0, -14.185431880, -81.617361779, -174.488319335
100CID8029, C4H4N0O1F0, -9.164144255, -49.059882521, -230.031655441
101CID8027, C4H5N1O0F0, 25.471365252, -21.221845949, -210.179030764
102CID1049, C5H5N1O0F0, 25.618435686, -24.931198194, -248.302102354
103CID783, C0H2N0O0F0, -.33629959885, -6.60256164885, -1.17562312895