KOJIN ID,Formula,DFT enthalpy,Nzpe energy
0485, C7H4N10O8F0, 146.097849, 50.563400
0486, C7H3N11O10F0, 152.476029, 56.495733
0487, C4H2N6O9F0, 16.865065, -44.461526
0488, C4H0N8O13F0, 49.051000, -12.367836
0489, C8H6N12O12F0, 114.661468, -11.110437
0490, C6H5N11O8F0, 150.246201, 50.441852
0491, C6H7N11O6F0, 128.663203, 20.586010
0492, C6H6N12O8F0, 145.655078, 36.580458
0493, C6H6N12O4F0, 198.301860, 98.794011
0494, C6H5N13O6F0, 213.127573, 112.765368
0495, C6H5N13O6F0, 213.429405, 113.172622
0496, C5H2N8O2F0, 142.609393, 87.744060
0497, C5H3N11O2F0, 182.443024, 112.660896
0498, C6H0N14O4F0, 311.073417, 245.223588
0499, C3H3N9O1F0, 162.711536, 108.118378
0500, C3H5N9O0F0, 152.106976, 86.390415
0501, C3H3N9O2F0, 153.650458, 96.652273
0502, C5H4N12O2F0, 212.516781, 133.389708
0503, C6H4N6O4F0, 118.342178, 48.474647
0504, C6H4N6O4F0, 79.594721, 8.818557
0505, C6H2N8O8F0, 89.609491, 16.392313
0506, C6H4N6O4F0, 77.770551, 6.197450
0507, C6H2N8O8F0, 120.704470, 48.701522
0508, C6H2N8O8F0, 127.458982, 55.722099
0509, C6H9N3O3F0, -46.108447, -137.554583
0510, C4H4N6O2F0, 64.749082, 5.917252
0511, C8H4N12O4F0, 208.008623, 114.809582
0512, C4H5N7O1F0, 86.997637, 20.876994
0513, C8H4N8O8F0, 102.895333, 9.336730
0514, C9H6N8O8F0, 91.959460, -18.049007
0515, C6H4N8O4F0, 103.146627, 25.939551
0516, C7H6N8O4F0, 96.690542, 3.121454
0517, C7H10N10O14F0, -92.381511, -237.933928
0518, C7H8N12O18F0, -51.840914, -198.219762
0519, C3H2N8O2F0, 173.444881, 126.919902
0520, C6H2N14O0F0, 385.124432, 316.505837
0521, C3H2N10O0F0, 223.526314, 175.727491
0522, C3H1N11O2F0, 245.068260, 197.237121
0523, C6H0N20O0F0, 529.116046, 457.962311
0524, C8H8N8O6F0, 90.405459, -23.533109
0525, C8H6N10O10F0, 99.261847, -16.157018
0526, C8H6N10O10F0, 104.473314, -11.195301
0527, C8H8N12O10F0, 87.376291, -46.677243
0528, C8H4N16O10F0, 263.678894, 145.415526
0529, C8H4N16O10F0, 259.335902, 140.884908
0530, C3H6N6O6F0, 42.512698, -34.859491
0531, C4H8N8O8F0, 53.374531, -50.771696