KOJIN ID,Formula,DFT enthalpy,Nzpe energy
0001, C4H7N3O9F0, -76.865708, -161.941871
0002, C5H9N3O9F0, -79.899983, -180.584519
0003, C5H8N4O12F0, -90.625043, -194.675011
0004, C4H7N3O9F0, -76.865708, -161.941871
0005, C4H8N4O9F0, -69.898732, -163.803401
0006, C4H2N10O4F0, 175.604529, 113.358418
0007, C2H2N8O2F0, 160.482567, 117.002641
0008, C5H2N8O6F0, 110.469620, 46.434104
0009, C4H4N10O4F0, 149.369494, 74.270782
0010, C12H0N16O6F0, 439.279524, 342.730538
0011, C4H2N8O4F0, 109.862650, 53.924459
0012, C12H16N10O20F0, -106.319894, -320.102487
0013, C6H0N8O8F0, 163.729775, 105.725891
0014, C4H6N10O2F0, 159.766891, 77.101282
0015, C4H6N4O12F0, -90.298471, -177.985800
0016, C4H6N4O12F0, -89.821564, -177.453672
0017, C4H6N4O12F0, -87.454598, -175.156359
0018, C6H8N6O18F0, -131.323656, -257.359571
0019, C6H8N6O18F0, -132.271823, -258.308993
0020, C4H6N12O0F0, 291.428952, 210.223558
0021, C4H10N8O8F0, 22.352227, -94.657898
0022, C4H8N6O10F0, -31.687419, -133.863894
0023, C4H6N8O6F0, 99.577226, 15.096665
0024, C6H3N3O7F0, -31.433777, -94.189452
0025, C6H3N3O9F0, -114.351308, -181.231797
0026, C3H6N6O6F0, 42.513326, -34.860119
0027, C4H8N8O8F0, 52.697449, -51.405481
0028, C4H4N8O3F0, 140.899621, 75.228588
0029, C6H0N6O12F0, 53.317387, -8.980110
0030, C6H1N5O10F0, 39.200761, -22.464520
0031, C6H2N4O8F0, 24.197463, -36.875134
0032, C6H3N3O6F0, 8.892961, -51.602013
0033, C6H3N3O7F0, -31.433149, -94.188824
0034, C6H2N6O10F0, 33.576130, -37.336832
0035, C6H3N5O8F0, 18.345675, -52.016020
0036, C6H4N4O6F0, 3.001639, -66.812552
0037, C6H5N5O6F0, -2.118472, -81.129518
0038, C6H6N6O6F0, -3.430857, -91.255348
0039, C12H4N6O12F0, 34.628395, -75.311160
0040, C12H6N8O12F0, 23.840354, -104.666727
0041, C12H4N10O16F0, 55.958519, -73.801700
0042, C6H2N4O6F0, 67.507223, 11.185065
0043, C6H3N5O6F0, 55.863522, -9.939750
0044, C6H4N6O6F0, 50.913463, -23.936058
0045, C6H2N6O8F0, 72.240437, 5.958688
0046, C6H0N6O6F0, 158.738027, 110.154076
0047, C7H3N5O10F0, 31.890636, -45.821020
0048, C7H4N4O8F0, 21.860351, -55.114294
0049, C7H4N4O8F0, 19.664069, -57.422901
0050, C7H4N4O8F0, 18.348808, -58.667880
0051, C7H5N3O6F0, 6.330573, -70.127945
0052, C7H5N3O6F0, 15.223638, -61.013997
0053, C7H5N3O6F0, 14.791284, -61.372305
0054, C7H5N5O8F0, 18.360468, -67.831110
0055, C7H5N5O8F0, 15.285672, -71.057764
0056, C7H5N5O8F0, 15.796464, -70.413939
0057, C13H6N6O12F0, 29.572912, -96.937615
0058, C6H2N6O6F0, 96.537914, 34.810823
0059, C6H0N8O10F0, 122.647048, 59.711999
0060, C6H2N4O5F0, 46.174251, -7.786177
0061, C7H3N5O7F0, 50.591197, -20.005780
0062, C7H5N5O8F0, 30.070423, -56.254188
0063, C8H6N6O10F0, 37.643113, -65.217643
0064, C8H6N6O10F0, 37.751046, -65.072061
0065, C6H2N6O10F0, 33.579268, -37.333694
0066, C6H3N3O6F0, 8.916807, -51.576913
0067, C6H3N3O8F0, -72.018421, -136.804501
0068, C6H3N3O9F0, -114.351308, -181.231797
0069, C6H3N5O8F0, 18.318064, -52.043630
0070, C6H4N2O6F0, -65.535794, -129.512071
0071, C6H4N2O6F0, -83.589869, -147.828446
0072, C6H4N4O6F0, 3.001639, -66.812552
0073, C6H4N4O7F0, -36.629817, -108.490730
0074, C6H5N5O7F0, -41.812681, -122.721099
0075, C7H2N4O6F0, 56.543227, -3.550638
0076, C7H3N3O8F0, -62.445913, -130.924635
0077, C7H5N3O7F0, -15.437571, -94.254681
0078, C7H6N4O7F0, -20.592824, -108.706561
0079, C8H7N3O8F0, -43.397618, -140.526824
0080, C9H4N6O14F0, -52.230073, -155.358962
0081, C9H5N5O12F0, -64.293488, -166.879895
0082, C9H5N5O13F0, -106.519699, -211.520544
0083, C10H4N4O8F0, 39.575751, -49.008322
0084, C10H7N5O12F0, -78.806795, -197.516759
0085, C12H4N6O12F0, 34.657888, -75.279784
0086, C12H4N6O13F0, -9.409433, -121.735819
0087, C12H4N6O14F0, -48.620460, -163.070121
0088, C12H5N7O12F0, 36.714602, -82.408628
0089, C12H6N8O12F0, 23.840354, -104.666727
0090, C13H5N5O11F0, 6.416661, -108.667063
0091, C18H5N9O18F0, 58.188882, -101.362799
0092, C18H6N8O16F0, 54.142528, -104.828392
0093, C18H6N8O16F0, 58.560195, -100.254476
0094, C24H5N13O26F0, 148.749358, -60.027590
0095, C24H6N14O24F0, 148.905655, -64.925135
0096, C7H3N3O7F0, -8.088690, -73.979779
0097, C7H4N4O7F0, 26.622362, -48.277327
0098, C7H5N3O6F0, 8.254518, -68.554778
0099, C7H5N3O7F0, -25.792733, -104.939913
0100, C7H5N3O7F0, -37.144379, -115.849793
0101, C8H4N6O12F0, 18.216483, -76.747935
0102, C8H5N3O6F0, 33.460170, -46.110544
0103, C8H5N5O10F0, 11.415990, -82.845304
0104, C8H7N3O7F0, -39.065452, -133.654716
0105, C8H7N3O7F0, -39.040979, -133.630243
0106, C9H7N5O10F0, 4.675644, -105.979037
0107, C13H6N6O12F0, 28.791663, -97.212465
0108, C13H7N5O10F0, 26.689333, -98.595354
0109, C14H6N6O12F0, 54.818726, -74.888713
0110, C14H8N6O12F0, 23.466351, -119.767635
0111, C14H8N6O12F0, 24.292781, -117.730111
0112, C5H2N4O7F0, 43.974671, -11.002768
0113, C10H4N8O8F0, 124.989016, 26.334910
0114, C17H5N13O16F0, 201.255669, 40.438483
0115, C17H7N11O16F0, 48.523286, -121.788505
0116, C17H7N11O16F0, 71.403538, -98.705568
0117, C17H9N9O12F0, 63.517907, -105.039366
0118, C3H1N5O6F0, 36.534912, -6.045034
0119, C3H2N4O4F0, 27.241951, -14.548901
0120, C6H2N8O8F0, 63.128590, -9.958692
0121, C9H3N7O10F0, 63.022557, -28.114356
0122, C9H4N6O8F0, 61.496909, -28.646343
0123, C9H4N6O8F0, 60.325348, -29.913912
0124, C9H5N5O6F0, 61.154116, -28.055087
0125, C9H4N6O8F0, 68.893991, -21.503402
0126, C9H5N7O8F0, 55.141230, -44.965691
0127, C10H5N7O10F0, 56.522548, -51.111920
0128, C10H6N8O10F0, 60.301147, -56.440440
0129, C15H6N8O12F0, 91.757768, -47.477089
0130, C6H2N10O8F0, 175.264129, 98.924898
0131, C4H5N9O2F0, 119.716988, 46.098884
0132, C5H6N8O2F0, 48.259340, -33.207280
0133, C3H4N8O6F0, 82.463427, 13.410516
0134, C4H6N8O6F0, 77.463164, -7.573369
0135, C4H6N8O7F0, 83.513770, -3.297771
0136, C5H8N8O7F0, 79.017398, -24.030026
0137, C8H10N16O12F0, 154.194143, -5.993815
0138, C9H12N16O12F0, 157.222864, -18.899772
0139, C10H14N16O12F0, 157.690092, -34.912528
0140, C8H10N16O14F0, 173.142738, 9.759307
0141, C3H3N7O1F0, 142.487313, 93.961739
0142, C4H4N6O1F0, 114.823553, 58.631439
0143, C4H4N6O1F0, 97.610968, 41.302137
0144, C8H4N16O2F0, 392.575601, 294.348760
0145, C8H4N16O3F0, 377.536868, 276.771340
0146, C2H3N5O2F0, 80.628144, 38.678401
0147, C6H3N13O0F0, 347.603902, 275.822780
0148, C4H4N6O1F0, 114.823553, 58.631439
0149, C5H2N6O3F0, 101.663083, 50.328530
0150, C5H3N9O3F0, 145.205923, 79.080704
0151, C5H2N10O5F0, 166.865842, 99.936468
0152, C3H1N9O2F0, 206.233989, 163.210393
0153, C5H6N6O1F0, 89.904257, 17.402842
0154, C5H2N8O8F0, 88.067850, 19.765075
0155, C3H2N4O4F0, 68.577884, 28.235323
0156, C8H5N7O6F0, 69.712459, -21.823995
0157, C7H6N2O5F0, -22.420670, -100.566658
0158, C7H6N2O5F0, -22.420670, -100.566658
0159, C3H6N2O6F0, -97.441810, -163.471378
0160, C3H6N2O5F0, -64.165140, -127.226805
0161, C6H8N2O6F0, -83.561866, -171.795057
0162, C6H8N6O5F0, 51.415705, -46.541977
0163, C6H6N8O9F0, 95.061847, -3.562252
0164, C8H12N6O5F0, 66.303463, -63.473375
0165, C8H12N6O7F0, -26.291519, -161.775124
0166, C10H12N10O20F0, -289.808786, -473.417554
0167, C10H10N10O20F0, -288.974081, -460.559814
0168, C10H9N7O17F0, -313.235916, -464.050839
0169, C3H6N6O1F0, 101.478342, 37.172325
0170, C3H6N6O1F0, 101.091795, 36.699183
0171, C7H10N6O4F0, -24.215302, -135.789860
0172, C9H12N12O4F0, 120.969300, -25.694366
0173, C9H12N12O4F0, 122.539329, -24.290627
0174, C7H8N12O4F0, 136.788093, 22.826487
0175, C9H10N18O4F0, 285.092045, 136.121025
0176, C9H10N18O4F0, 284.093678, 134.816433
0177, C3H3N5O4F0, 2.967738, -47.757040
0178, C3H2N6O6F0, 29.999765, -21.315186
0179, C4H6N6O3F0, -48.629291, -123.189383
0180, C4H4N8O7F0, -3.799666, -79.679412
0181, C8H14N6O15F0, -106.499254, -271.845509
0182, C11H16N8O20F0, -223.772799, -429.476265
0183, C6H9N5O13F0, -137.351536, -256.781995
0184, C11H17N11O25F0, -121.693821, -352.230159
0185, C3H2N4O10F0, -90.922779, -145.188474
0186, C14H16N8O16F0, -301.157102, -510.854779
0187, C10H12N4O12F0, -104.081083, -252.160788
0188, C4H4N6O2F0, 24.199418, -34.820663
0189, C4H2N8O6F0, 66.756204, 6.499926
0190, C14H8N2O8F0, -70.049953, -192.857103
0191, C14H8N2O8F0, -70.085722, -192.914834
0192, C14H6N4O12F0, -72.355078, -196.889134
0193, C14H8N2O8F0, -70.220636, -193.042846
0194, C14H7N3O10F0, -71.312330, -194.988894
0195, C14H7N3O10F0, -71.339313, -195.010229
0196, C22H12N2O12F0, -148.881628, -334.802594
0197, C22H10N4O16F0, -151.645462, -339.307141
0198, C14H26N6O4F0, 39.359466, -193.869479
0199, C16H24N6O4F0, 82.061933, -145.950070
0200, C16H24N6O4F0, 88.957635, -139.112726
0201, C20H36N6O4F0, 27.503702, -291.042830
0202, C5H7N5O10F0, -82.790424, -178.846475
0203, C7H8N8O16F0, -74.842403, -205.409941
0204, C5H6N8O9F0, 41.344673, -53.476969
0205, C7H8N10O18F0, -50.174467, -190.733599
0206, C6H7N5O12F0, -163.321058, -267.512713
0207, C8H8N8O18F0, -155.041086, -293.867219
0208, C7H10N8O13F0, -57.007923, -192.991471
0209, C4H6N4O8F0, -97.572572, -176.248475
0210, C4H5N5O10F0, -74.986449, -154.369243
0211, C5H6N8O13F0, -46.622735, -150.948398
0212, C3H4N4O8F0, -90.061016, -152.930254
0213, C3H3N5O10F0, -67.255265, -130.817588
0214, C7H10N8O13F0, -55.548336, -192.638183
0215, C4H6N4O8F0, -96.617502, -175.785373
0216, C4H5N5O10F0, -77.558611, -157.576444
0217, C6H4N6O16F0, -141.449234, -237.769337
0218, C7H6N6O16F0, -150.696481, -263.500332
0219, C4H2N6O9F0, -30.208187, -90.823183
0220, C6H5N7O16F0, -160.383341, -266.288098
0221, C7H7N7O15F0, -126.502019, -246.034318
0222, C4H3N7O9F0, -50.573643, -120.962801
0223, C16H4N10O14F0, 79.423320, -60.591716
0224, C3H4N8O0F0, 136.344828, 79.488775
0225, C3H2N10O0F0, 210.566360, 161.579035
0226, C3H2N8O2F0, 141.183362, 92.713105
0227, C4H6N6O5F0, 6.605041, -72.053509
0228, C6H10N8O7F0, 12.867589, -108.248044
0229, C4H5N7O6F0, 61.887386, -15.034121
0230, C4H7N7O4F0, 45.923736, -39.628295
0231, C8H10N12O8F0, 102.472479, -39.432213
0232, C5H6N6O6F0, 38.215841, -46.078530
0233, C5H6N6O6F0, 42.717595, -41.670904
0234, C5H6N6O6F0, 48.661992, -35.571511
0235, C8H7N9O8F0, 103.895204, -10.449678
0236, C5H7N7O6F0, 44.639393, -48.745782
0237, C8H6N0O6F0, -115.279106, -193.237435
0238, C7H5N1O5F0, -53.221710, -122.042207
0239, C7H4N2O7F0, -54.337249, -124.019003
0240, C9H6N0O9F0, -179.996971, -268.016512
0241, C7H6N8O17F0, -204.701453, -326.057609
0242, C9H10N10O20F0, -180.840867, -346.597288
0243, C9H8N8O22F0, -243.085200, -395.011986
0244, C5H8N6O10F0, -82.402886, -188.162189
0245, C5H7N7O12F0, -54.102661, -159.926914
0246, C6H8N12O6F0, 94.798763, -23.369483
0247, C6H4N12O10F0, 124.928248, 23.950142
0248, C8H6N10O10F0, 91.078495, -24.681107
0249, C8H6N10O10F0, 81.927525, -33.396587
0250, C8H8N12O10F0, 87.376291, -46.677871
0251, C8H6N10O10F0, 99.270004, -16.148861
0252, C8H6N10O10F0, 104.467039, -11.201576
0253, C6H0N10O14F0, 82.849369, 6.376476
0254, C5H5N7O14F0, -83.521754, -181.065631
0255, C8H6N8O8F0, 63.599317, -41.739475
0256, C6H4N12O8F0, 147.624320, 51.871680
0257, C2H0N14O0F0, 345.068078, 303.677952
0258, C8H12N6O16F0, -107.491070, -262.829006
0259, C2H4N4O8F0, -32.421609, -91.751944
0260, C4H8N4O8F0, -41.809684, -133.875339
0261, C6H10N6O14F0, -79.339641, -209.884405
0262, C6H2N6O6F0, 118.379637, 56.706512
0263, C4H4N4O4F0, 67.064065, 10.877815
0264, C5H11N1O3F0, -51.020150, -144.653795
0265, C5H10N2O6F0, -68.032228, -165.255952
0266, C5H9N3O9F0, -79.899983, -180.584519
0267, C7H12N2O6F0, -62.513071, -180.560776
0268, C8H14N2O6F0, -70.135067, -204.692877
0269, C2H2N6O4F0, 55.987902, 12.149668
0270, C3H4N6O4F0, 52.862638, -7.018204
0271, C1H3N5O1F0, 74.528742, 38.392407
0272, C2H2N10O2F0, 223.762726, 176.014914
0273, C2H4N10O2F0, 184.942361, 123.184819
0274, C4H2N8O4F0, 101.989916, 45.141208
0275, C4H4N10O4F0, 109.734112, 34.795414
0276, C4H2N12O0F0, 236.758676, 178.745311
0277, C6H4N10O8F0, 81.842280, -8.824200
0278, C4H4N8O4F0, 55.227791, -13.463228
0279, C3H4N8O0F0, 118.613920, 61.884623
0280, C3H3N9O2F0, 138.961088, 81.851834
0281, C3H2N8O2F0, 122.976175, 74.477679
0282, C3H2N10O0F0, 194.910626, 145.917025
0283, C2H4N8O2F0, 157.146609, 100.965938
0284, C4H8N12O6F0, 184.168965, 75.327517
0285, C8H16N12O2F0, 149.373114, -15.235404
0286, C14H24N12O4F0, 32.258087, -207.973238
0287, C1H1N5O2F0, 81.340007, 55.034405
0288, C2H3N5O2F0, 79.730806, 37.658071
0289, C2H3N5O2F0, 75.106061, 32.863898
0290, C2H3N9O0F0, 171.031047, 123.190051
0291, C4H7N9O0F0, 149.134197, 67.725177
0292, C5H9N9O0F0, 148.388450, 50.891638
0293, C8H4N16O6F0, 304.891826, 198.064579
0294, C6H3N11O4F0, 210.456472, 133.960050
0295, C14H4N26O8F0, 560.187679, 400.976910
0296, C5H5N7O2F0, 80.088139, 7.471986
0297, C5H3N7O4F0, 87.829532, 23.573447
0298, C5H2N8O4F0, 158.997749, 99.883984
0299, C7H0N14O17F0, 127.712671, 30.218724
0300, C3H1N9O10F0, 99.367886, 38.510949
0301, C3H2N8O8F0, 83.334218, 22.519639
0302, C5H5N9O4F0, 68.763385, -13.588965
0303, C3H2N8O3F0, 141.458371, 91.949802
0304, C3H4N8O1F0, 132.074786, 74.118297
0305, C3H4N8O1F0, 132.074786, 74.118297
0306, C6H2N14O2F0, 325.585394, 252.260912
0307, C6H0N8O7F0, 143.857645, 87.099150
0308, C8H0N10O8F0, 171.325070, 99.568996
0309, C4H2N6O4F0, 73.196423, 22.776117
0310, C6H2N12O4F0, 218.782122, 146.217554
0311, C6H2N12O4F0, 217.869096, 144.890371
0312, C4H2N10O3F0, 194.619162, 137.129357
0313, C3H3N5O4F0, 34.191984, -16.839019
0314, C3H0N6O4F0, 123.798428, 90.343171
0315, C9H4N14O8F0, 219.667201, 107.934964
0316, C8H12N4O12F0, -83.534241, -223.928711
0317, C8H12N4O12F0, -86.002235, -226.317640
0318, C8H12N4O12F0, -83.658488, -224.256271
0319, C8H12N4O12F0, -80.200283, -220.875250
0320, C8H12N4O12F0, -83.600757, -223.789404
0321, C8H12N4O12F0, -84.279095, -224.147712
0322, C7H8N2O6F0, -91.281009, -184.033273
0323, C5H5N3O7F0, -26.746875, -98.101518
0324, C10H8N6O14F0, -52.874282, -185.532795
0325, C8H6N4O8F0, -6.917500, -100.479434
0326, C10H6N6O10F0, 45.237562, -64.954513
0327, C6H4N6O8F0, 3.341032, -75.928861
0328, C3H3N3O3F0, -33.039762, -76.164168
0329, C5H7N3O3F0, -44.635415, -119.919088
0330, C6H6N8O4F0, 62.739918, -26.925056
0331, C10H4N14O8F0, 222.485825, 107.050277
0332, C4H2N8O4F0, 109.862650, 53.925086
0333, C3H5N9O0F0, 152.366766, 86.943251
0334, C3H4N10O2F0, 167.403321, 101.347590
0335, C5H4N8O4F0, 92.300902, 19.986894
0336, C6H8N8O2F0, 113.733414, 16.605082
0337, C6H7N9O4F0, 121.499018, 23.423459
0338, C6H8N10O4F0, 117.361584, 10.121176
0339, C6H6N10O6F0, 131.580758, 32.584956
0340, C6H6N12O4F0, 198.545962, 98.887510
0341, C6H6N14O2F0, 265.693143, 165.395259
0342, C5H7N9O2F0, 122.332181, 32.320690
0343, C5H8N10O2F0, 118.605766, 19.372322
0344, C4H6N10O2F0, 157.115663, 74.661525
0345, C5H6N10O4F0, 131.793314, 40.918683
0346, C5H6N12O6F0, 144.574338, 43.591396
0347, C6H8N10O4F0, 85.935908, -22.048098
0348, C6H6N12O8F0, 115.331937, 5.754682
0349, C6H4N8O6F0, 139.500453, 60.185379
0350, C6H0N8O6F0, 233.652841, 180.604592
0351, C6H0N8O10F0, 162.012601, 99.703807
0352, C7H8N12O8F0, 209.148106, 86.106050
0353, C3H4N6O4F0, 99.894475, 41.977736
0354, C9H4N12O8F0, 180.406850, 74.142925
0355, C7H10N14O6F0, 216.186035, 77.424913
0356, C10H6N12O8F0, 176.430056, 53.713757
0357, C8H12N14O6F0, 210.048099, 55.123885
0358, C3H3N9O2F0, 137.223515, 80.577989
0359, C5H2N8O6F0, 105.519198, 40.830444
0360, C4H2N8O4F0, 110.556676, 54.782264
0361, C4H3N9O4F0, 104.047884, 38.228227
0362, C4H3N9O4F0, 131.759331, 66.708373
0363, C4H3N9O4F0, 129.129439, 63.534430
0364, C6H0N10O4F0, 207.456102, 152.574270
0365, C6H0N10O4F0, 249.094494, 194.698983
0366, C8H9N7O4F0, 72.374429, -40.388501
0367, C6H8N8O1F0, 149.138596, 55.065391
0368, C6H8N10O4F0, 110.155266, 2.799395
0369, C6H6N10O6F0, 128.302648, 29.267313
0372, C7H6N10O8F0, 85.754536, -21.460955
0373, C7H4N12O12F0, 115.268536, 7.943856
0374, C4H1N9O12F0, 78.094856, 9.576713
0375, C3H3N9O1F0, 162.711536, 108.118378
0376, C3H4N10O0F0, 197.130009, 135.506572
0377, C7H2N6O4F0, 132.269718, 70.893851
0378, C7H1N7O6F0, 158.377424, 96.703175
0379, C7H2N6O9F0, -11.235886, -84.576649
0380, C3H3N5O4F0, 22.062852, -28.724677
0381, C3H4N6O4F0, 47.953632, -12.185745
0382, C2H4N6O2F0, 84.037769, 32.293783
0383, C2H4N6O2F0, 78.168045, 26.112187
0384, C2H4N6O2F0, 78.498115, 26.736559
0385, C4H4N6O2F0, 54.757249, -4.059520
0386, C4H3N7O4F0, 102.539132, 43.476064
0387, C10H18N0O8F0, -120.040076, -282.507029
0388, C9H16N0O8F0, -113.570187, -260.576859
0389, C8H14N0O8F0, -107.902255, -239.050177
0390, C8H10N0O8F0, -64.500325, -170.711115
0391, C6H12N0O8F0, -113.604016, -224.723641
0392, C3H6N6O1F0, 75.836421, 9.973553
0393, C4H1N5O4F0, 81.390706, 40.138387
0394, C3H7N7O1F0, 104.779406, 29.450484
0395, C4H2N6O3F0, 106.696486, 58.516172
0396, C9H4N12O8F0, 180.406850, 74.142925
0397, C7H10N14O6F0, 198.241774, 59.493202
0398, C7H4N16O6F0, 295.389599, 190.053064
0399, C10H6N12O8F0, 176.430056, 53.713757
0400, C8H12N14O6F0, 206.787559, 52.073561
0401, C8H6N16O6F0, 290.302113, 168.530774
0402, C2H2N8O2F0, 125.959503, 82.227947
0403, C3H1N5O7F0, 55.077977, 10.784519
0404, C24H9N15O12F0, 251.631687, 40.233006
0405, C6H3N9O0F0, 182.523286, 117.756225
0406, C6H0N12O6F0, 252.420833, 186.569747
0407, C6H1N11O4F0, 227.199797, 161.313259
0408, C4H4N6O6F0, 55.497719, -12.415187
0409, C4H5N7O6F0, 81.559809, 4.704817
0410, C3H4N6O4F0, 61.050382, 1.035251
0411, C4H5N7O4F0, 55.219779, -17.788385
0412, C4H4N8O6F0, 71.355104, -2.443409
0413, C4H3N7O4F0, 119.850865, 60.655392
0414, C4H3N5O3F0, 57.099536, 6.217914
0415, C4H4N6O3F0, 113.814837, 53.294596
0416, C4H5N5O4F0, 31.347216, -35.678078
0417, C4H3N5O6F0, 48.251503, -10.453256
0418, C3H4N8O6F0, 82.464054, 13.411771
0419, C4H6N8O6F0, 77.448104, -7.588429
0420, C4H6N8O7F0, 84.091706, -2.707912
0421, C5H8N8O7F0, 33.135786, -70.779483
0422, C8H10N16O12F0, 154.222380, -5.965577
0423, C8H10N16O14F0, 173.962893, 10.507298
0424, C3H3N5O4F0, 59.714050, 8.656691
0425, C3H3N5O4F0, 55.685439, 4.731619
0426, C3H4N4O2F0, 52.701458, 2.685452
0427, C3H3N7O2F0, 129.283418, 77.746014
0428, C6H6N8O4F0, 112.758701, 22.978891
0429, C5H4N8O10F0, 66.934159, -18.522989
0430, C5H4N8O10F0, 65.414959, -19.776125
0431, C5H5N7O8F0, 59.688134, -24.735191
0432, C5H4N10O8F0, 135.579206, 49.638247
0433, C8H8N10O8F0, 72.725917, -51.118277
0434, C8H6N12O12F0, 116.606747, -9.064756
0435, C8H4N10O6F0, 117.905262, 25.050095
0436, C8H4N10O12F0, 109.460568, 2.320193
0437, C8H4N14O8F0, 244.855582, 136.504114
0438, C8H4N14O8F0, 250.825707, 142.685711
0439, C8H8N10O8F0, 75.663916, -48.422497
0440, C8H6N12O12F0, 114.661468, -11.110437
0441, C4H4N6O4F0, 90.637933, 27.019266
0442, C4H1N7O2F0, 149.341727, 106.846312
0443, C8H6N12O13F0, 93.207704, -32.936724
0444, C10H10N14O8F0, 148.660863, -6.537937
0445, C10H8N12O8F0, 167.312226, 30.335820
0446, C10H7N15O12F0, 157.319848, 9.478040
0447, C10H6N14O12F0, 183.934044, 45.506834
0448, C10H5N13O12F0, 151.881749, 22.412939
0449, C10H4N14O14F0, 176.353537, 46.668549
0450, C20H16N28O16F0, 338.179732, 52.756286
0451, C20H12N24O16F0, 375.051359, 126.470545
0452, C20H8N28O24F0, 415.552142, 163.510610
0453, C10H8N16O6F0, 311.475750, 168.202720
0454, C2H4N4O4F0, -1.445867, -51.799291
0455, C4H2N6O4F0, 88.312499, 36.575679
0456, C6H4N8O10F0, 54.058142, -35.988359
0457, C4H0N8O8F0, 145.259960, 93.268369
0458, C4H4N8O4F0, 141.623926, 71.819077
0459, C4H2N10O8F0, 165.766445, 95.051078
0460, C2H4N4O4F0, -1.445867, -51.799291
0461, C2H5N5O4F0, 28.145961, -31.436317
0462, C6H8N10O8F0, 90.513601, -23.834368
0463, C6H4N8O10F0, 54.058142, -35.988359
0464, C6H4N8O8F0, 82.296378, -2.822724
0465, C7H4N8O8F0, 13.884516, -75.535286
0466, C6H4N10O10F0, 57.780120, -37.449176
0467, C6H4N12O4F0, 242.142929, 155.222245
0468, C6H4N12O2F0, 271.708975, 189.901433
0469, C4H2N10O6F0, 193.662061, 130.346480
0470, C4H2N10O6F0, 134.865049, 70.814654
0471, C3H3N5O5F0, 37.370478, -15.261084
0472, C3H2N4O6F0, -35.390080, -81.441289
0473, C6H2N10O10F0, 111.672636, 30.599278
0474, C4H2N8O10F0, 50.960544, -17.957634
0475, C4H2N6O3F0, 115.254461, 67.461948
0476, C4H2N6O4F0, 103.351393, 53.072903
0477, C3H5N7O0F0, 130.643423, 70.295399
0478, C3H3N7O2F0, 112.055144, 60.127430
0479, C5H5N9O4F0, 114.320575, 32.443249
0480, C5H3N9O6F0, 133.712937, 60.245252
0481, C5H3N11O4F0, 203.762978, 129.765047
0482, C7H0N10O15F0, 46.915047, -35.208727
0483, C7H3N9O8F0, 106.834843, 20.543681
0484, C8H5N9O8F0, 97.333454, -5.312815