KOJIN ID,Formula,DFT enthalpy,Nzpe energy
0434, C8H6N12O12F0, 82.42400736, -43.24749679
0435, C8H4N10O6F0, 95.97796627, 3.12279969
0436, C8H4N10O12F0, 82.19296118, -24.94741364
0437, C8H4N14O8F0, 217.65174869, 109.30028065
0438, C8H4N14O8F0, 220.28999864, 112.15000209
0439, C8H8N10O8F0, 50.96135963, -73.12505439
0440, C8H6N12O12F0, 82.60922337, -43.16268261
0441, C4H4N6O4F0, 77.170570975, 13.551904669
0442, C4H1N7O2F0, 138.571391012, 96.075975858
0443, C8H6N12O13F0, 60.57575764, -65.56867178
0444, C10H10N14O8F0, 115.24694193, -39.95185914
0445, C10H8N12O8F0, 138.75740337, 1.78099752
0446, C10H7N15O12F0, 118.41912876, -29.42267921
0447, C10H6N14O12F0, 149.90473267, 11.47752329
0448, C10H5N13O12F0, 122.25652094, -7.21228943
0449, C10H4N14O14F0, 143.12477252, 13.43978452
0450, C20H16N28O16F0, 261.87922630, -23.54421941
0451, C20H12N24O16F0, 310.26482531, 61.68401121
0452, C20H8N28O24F0, 343.32156063, 91.28002836
0453, C10H8N16O6F0, 282.24524293, 138.97221328
0454, C2H4N4O4F0, -9.521232068, -59.874656171
0455, C4H2N6O4F0, 80.511682978, 28.774862418
0456, C6H4N8O10F0, 29.69302795, -60.35347435
0457, C4H0N8O8F0, 129.34481415, 77.35322345
0458, C4H4N8O4F0, 128.627473478, 58.822624191
0459, C4H2N10O8F0, 146.21502316, 75.49965600
0460, C2H4N4O4F0, -9.521232068, -59.874656171
0461, C2H5N5O4F0, 18.602504050, -40.979775228
0462, C6H8N10O8F0, 67.42275297, -46.92521647
0463, C6H4N8O10F0, 29.69302795, -60.35347435
0464, C6H4N8O8F0, 57.50094866, -27.61815479
0465, C7H4N8O8F0, -9.55098215, -98.97078465
0466, C6H4N10O10F0, 31.38809092, -63.84120683
0467, C6H4N12O4F0, 221.96288676, 135.04220330
0468, C6H4N12O2F0, 251.22692503, 169.41938264
0469, C4H2N10O6F0, 170.76797686, 107.45239592
0470, C4H2N10O6F0, 118.51511012, 54.46471562
0471, C3H3N5O5F0, 28.915588972, -23.715974548
0472, C3H2N4O6F0, -43.337938085, -89.389146724
0473, C6H2N10O10F0, 90.98148677, 9.90812875
0474, C4H2N8O10F0, 34.81999776, -34.09818194
0475, C4H2N6O3F0, 101.620846008, 53.828332995
0476, C4H2N6O4F0, 89.235383968, 38.956894943
0477, C3H5N7O0F0, 127.251049891, 66.903026122
0478, C3H3N7O2F0, 104.347552690, 52.419838409
0479, C5H5N9O4F0, 95.647565989, 13.770239757
0480, C5H3N9O6F0, 115.90161167, 42.43392630
0481, C5H3N11O4F0, 184.12095864, 110.12302773
0482, C7H0N10O15F0, 24.74045773, -57.38331802
0483, C7H3N9O8F0, 86.78957643, .49841533
0484, C8H5N9O8F0, 72.21297797, -30.43329196
0485, C7H4N10O8F0, 124.02014692, 28.48569746
0486, C7H3N11O10F0, 127.12913330, 31.14883735
0487, C4H2N6O9F0, 3.74729358, -57.57929856
0488, C4H0N8O13F0, 31.24541161, -30.17342558
0489, C8H6N12O12F0, 82.60922337, -43.16268261
0490, C6H5N11O8F0, 123.98463483, 24.18028576
0491, C6H7N11O6F0, 104.86508103, -3.21211171
0492, C6H6N12O8F0, 117.34939166, 8.27477184
0493, C6H6N12O4F0, 177.97182456, 78.46397492
0494, C6H5N13O6F0, 186.11672501, 85.75452047
0495, C6H5N13O6F0, 185.79991449, 85.54313134
0496, C5H2N8O2F0, 132.645499794, 77.780167287
0497, C5H3N11O2F0, 166.991441922, 97.209314042
0498, C6H0N14O4F0, 290.86234928, 225.01251957
0499, C3H3N9O1F0, 153.293180513, 98.700021845
0500, C3H5N9O0F0, 143.336947289, 77.620386206
0501, C3H3N9O2F0, 142.481415814, 85.483230336
0502, C5H4N12O2F0, 195.99374506, 116.86667237
0503, C6H4N6O4F0, 105.765312634, 35.897781736
0504, C6H4N6O4F0, 70.421349652, -.354815070
0505, C6H2N8O8F0, 72.19902049, -1.01815739
0506, C6H4N6O4F0, 68.178339572, -3.394762252
0507, C6H2N8O8F0, 102.40331191, 30.40036476
0508, C6H2N8O8F0, 110.17944772, 38.44256417
0509, C6H9N3O3F0, -60.882394444, -152.328530193
0510, C4H4N6O2F0, 58.172510329, -.659319193
0511, C8H4N12O4F0, 189.37346476, 96.17442322
0512, C4H5N7O1F0, 81.499291305, 15.378647843
0513, C8H4N8O8F0, 81.79319159, -11.76541219
0514, C9H6N8O8F0, 68.34090339, -41.66756465
0515, C6H4N8O4F0, 87.334368907, 10.127292958
0516, C7H6N8O4F0, 77.05337645, -16.51571132
0517, C7H10N10O14F0, -121.15987857, -266.71229613
0518, C7H8N12O18F0, -92.35987280, -238.73872159
0519, C3H2N8O2F0, 159.503026789, 112.978048417
0520, C6H2N14O0F0, 359.087001834, 290.468406974
0521, C3H2N10O0F0, 213.885258908, 166.086436367
0522, C3H1N11O2F0, 230.434354302, 182.603214558
0523, C6H0N20O0F0, 501.81076502, 430.65703037
0524, C8H8N8O6F0, 65.28902459, -48.64954494
0525, C8H6N10O10F0, 68.11455507, -47.30431093
0526, C8H6N10O10F0, 75.95291477, -39.71570050
0527, C8H8N12O10F0, 51.14417962, -82.90935534
0528, C8H4N16O10F0, 225.97214282, 107.70877510
0529, C8H4N16O10F0, 225.36395500, 106.91296128
0530, C3H6N6O6F0, 20.870656370, -56.501533826
0531, C4H8N8O8F0, 21.77177773, -82.37444993